23
1_naph.log	Energy: -1787255.0273651
As        -1.76700       -0.25845       -0.05094
O         -2.91655        1.03764       -0.30866
H         -3.53214        0.75483       -0.99041
O         -1.96112       -0.62254        1.64640
H         -2.54735       -1.37831        1.74263
O         -2.06065       -1.52755       -1.00400
C         -0.08357        0.64196       -0.06769
C          1.12820       -0.10441       -0.04893
C         -0.07922        2.00995       -0.05628
C          2.34822        0.61716        0.00445
C          1.17619       -1.51859       -0.08869
C          1.13949        2.71326       -0.01311
H         -1.01198        2.55496       -0.07956
C          3.56999       -0.09377        0.03566
C          2.31886        2.03128        0.02230
C          2.37328       -2.17318       -0.05800
H          0.25705       -2.08387       -0.17484
H          1.12936        3.79398       -0.00345
C          3.58394       -1.45701        0.00956
H          4.49549        0.46587        0.07921
H          3.25874        2.56717        0.06185
H          2.39304       -3.25366       -0.09344
H          4.52302       -1.99248        0.03356
