25
3cl_hex.log	Energy: -1982311.5223770
As         2.37608       -0.15150        0.08735
O          3.49156        0.86544       -0.79554
H          4.27226        1.01715       -0.25593
O          2.42517       -1.67517       -0.77832
H          2.92116       -2.31536       -0.26108
O          2.75357       -0.30883        1.64690
C          0.67869        0.54034       -0.46615
C         -0.47220       -0.26358        0.12610
H          0.67835        0.51420       -1.55635
H          0.65019        1.58154       -0.14974
C         -1.84354        0.19838       -0.34208
H         -0.43284       -0.22913        1.21625
C         -2.96136       -0.68080        0.19111
H         -1.87665        0.22923       -1.43107
H         -2.69881       -1.71393       -0.05892
H         -2.97241       -0.61709        1.28226
C         -4.34437       -0.37124       -0.36686
C         -5.40450       -1.32728        0.16382
H         -4.31116       -0.42677       -1.45841
H         -4.61489        0.65515       -0.11674
H         -6.38685       -1.09292       -0.24494
H         -5.17166       -2.36096       -0.09811
H         -5.47355       -1.26859        1.25126
Cl        -2.11183        1.92425        0.16149
H         -0.37155       -1.31163       -0.16631
