22
3cl_pent.log	Energy: -1982311.5223770
As         2.01098       -0.03613        0.07683
O          3.00017        1.03529       -0.88808
H          3.76977        1.29853       -0.37611
O          2.20773       -1.59672       -0.69725
H          2.77355       -2.14949       -0.15163
O          2.42486       -0.05762        1.63492
C          0.24252        0.44030       -0.48162
C         -0.80878       -0.44289        0.17898
H          0.22974        0.34961       -1.56828
H          0.10853        1.48975       -0.22514
C         -2.22749       -0.15485       -0.28693
H         -0.75781       -0.33993        1.26435
C         -3.23937       -1.11456        0.31713
H         -2.27955       -0.19110       -1.37508
H         -2.87546       -2.12477        0.10941
H         -3.23120       -0.99540        1.40248
C         -4.65306       -0.96402       -0.22436
H         -4.67239       -1.09229       -1.30790
H         -5.06100        0.01896        0.00552
Cl        -2.67048        1.55889        0.12431
H         -0.60230       -1.49020       -0.05474
H         -5.31115       -1.71395        0.21261
