19
3no2_phe.log	Energy: -1819178.5143161
C         -0.89224       -0.39227       -0.00121
C         -2.16845        0.13284        0.00385
C          0.17281        0.49616       -0.01049
C         -2.41022        1.49563        0.00101
C         -0.03888        1.86834       -0.01292
C         -1.33413        2.36492       -0.00739
H         -3.42827        1.85322        0.00519
H          0.81070        2.53867       -0.02103
H         -1.50464        3.43169       -0.01038
N         -3.31676       -0.79465        0.01322
O         -4.42662       -0.30800        0.01563
O         -3.07582       -1.98164        0.01813
H         -0.75097       -1.46272        0.00016
As         1.97727       -0.12479       -0.00994
O          1.94230       -1.22234       -1.36139
H          2.82754       -1.51749       -1.59060
O          2.08089       -1.23278        1.33914
H          2.77812       -0.93613        1.93085
O          3.13698        0.99221       -0.00098
