20
4benz_phe.log	Energy: -1809188.5062404
C         -0.40041       -1.21033       -0.02277
C          0.29931       -0.01260       -0.00890
C         -0.36498        1.20824        0.01143
C         -1.74623        1.22365        0.01605
C         -2.45681        0.02739        0.00181
C         -1.78556       -1.18876       -0.01769
H          0.13778       -2.14869       -0.03874
H          0.18894        2.13650        0.02195
H         -2.29278        2.15562        0.03091
H         -2.34389       -2.11266       -0.02925
C         -3.94502        0.10485        0.00830
O         -4.57203        1.12934        0.02610
O         -4.53274       -1.10208       -0.00733
H         -5.48352       -0.94601       -0.00200
As         2.20433       -0.10317       -0.00771
O          2.89242       -1.55980       -0.00875
O          2.59543        0.93258       -1.35533
H          3.50628        0.79776       -1.62991
O          2.70041        0.88136        1.35222
H          3.27448        0.35628        1.91676
