20
4me_phe.log	Energy: -1715521.1023024
As        -1.59998        0.09654        0.01179
O         -1.99022       -0.96210        1.34489
H         -2.91422       -0.86379        1.58870
O         -2.11141       -0.87312       -1.35714
H         -2.68254       -0.33303       -1.91017
O         -2.30935        1.54399        0.03182
C          0.29793        0.02328        0.00699
C          0.97920       -1.18827       -0.02658
C          0.99424        1.22187        0.02712
C          2.36049       -1.18824       -0.03682
C          2.38034        1.20538        0.01613
H          0.45302        2.15866        0.05120
C          3.08084        0.00580       -0.01426
H          2.89326       -2.13033       -0.06436
H          2.92376        2.14123        0.03067
H          0.43637       -2.12343       -0.04462
C          4.58290       -0.01661       -0.00610
H          4.99723        0.97047       -0.20308
H          4.95596       -0.34913        0.96414
H          4.96870       -0.70606       -0.75699
