25
4oh_3nacetyl_phe.log	Energy: -1868593.7634898
As        -2.35688       -0.23970       -0.01027
O         -2.08747       -1.56720        1.09219
H         -2.91409       -2.01316        1.29416
O         -2.45967       -1.09732       -1.53594
H         -3.22842       -0.77555       -2.01469
O         -3.65142        0.67770        0.27028
C         -0.65451        0.59631        0.00330
C          0.49892       -0.13312       -0.26283
C         -0.59362        1.95220        0.27322
C          1.73944        0.47769       -0.21505
H          0.43121       -1.17959       -0.51807
C          0.63948        2.58363        0.27640
H         -1.49908        2.50867        0.47300
C          1.79464        1.85862        0.04031
H          0.70649        3.64550        0.47870
O          3.02683        2.41838        0.03148
H          2.96041        3.36253        0.17957
N          2.94359       -0.19012       -0.45504
H          3.69205        0.37071       -0.83226
C          3.38624       -1.42678       -0.03039
O          4.51124       -1.77540       -0.30789
C          2.45624       -2.29709        0.77592
H          1.81597       -1.72846        1.44724
H          1.81818       -2.87768        0.10916
H          3.07207       -2.98991        1.34098
