20
4oh_3no2_phe.log	Energy: -1866381.4917145
C         -0.62988       -0.55022        0.01337
C         -1.95507       -0.16372        0.02265
C          0.36401        0.41285        0.00454
C         -2.31883        1.18719        0.05861
C          0.02532        1.76049        0.03131
C         -1.30028        2.13930        0.06596
H         -1.56279        3.18927        0.10103
N         -2.96703       -1.22720       -0.01121
O         -2.69758       -2.25624        0.57383
H         -0.40054       -1.60616        0.01065
As         2.20785       -0.04682       -0.03166
O          2.25875       -1.10072       -1.41759
H          3.15889       -1.37309       -1.61424
O          2.44805       -1.19596        1.26612
H          3.08301       -0.83081        1.88864
O          3.25622        1.17541        0.01004
O         -3.98036       -1.02076       -0.63803
H          0.80667        2.50921        0.02914
O         -3.60975        1.52934        0.12361
H         -3.68923        2.48307        0.18560
