10
met.log	Energy: -1570540.5244937
As         0.06267        0.00000        0.09400
O          0.29001        1.37793       -0.95990
H          1.13575        1.78869       -0.76111
O          0.29002       -1.37793       -0.95990
H          1.13575       -1.78869       -0.76111
O          1.06598       -0.00000        1.35485
C         -1.83103       -0.00000        0.31351
H         -2.11511       -0.89193        0.86488
H         -2.11511        0.89193        0.86488
H         -2.29144       -0.00000       -0.67100
