17
phe.log	Energy: -1690847.3626558
As         1.21638        0.09840       -0.01195
O          1.60420       -0.95917       -1.34578
H          2.52695       -0.85920       -1.59398
O          1.72767       -0.86950        1.35736
H          2.29720       -0.32893        1.91172
O          1.91908        1.54873       -0.03287
C         -0.68458        0.01919       -0.00526
C         -1.35602       -1.19740        0.02732
C         -1.37994        1.21991       -0.02631
C         -2.73996       -1.20505        0.03735
C         -2.76665        1.20178       -0.01558
H         -0.83674        2.15542       -0.05237
C         -3.44235       -0.00744        0.01625
H         -3.27255       -2.14555        0.06174
H         -3.31658        2.13236       -0.03271
H         -0.80532       -2.12788        0.04300
H         -4.52399       -0.01985        0.02443
