21
2meo_phe.log	Energy: -1762716.7061257
As         1.43312       -0.13733       -0.00000
O          1.67494        0.91881        1.37101
H          2.48082        0.63864        1.81451
O          1.67496        0.91903       -1.37084
H          2.48068        0.63873       -1.81455
O          2.44416       -1.39616       -0.00013
C         -0.42272       -0.55494       -0.00001
C         -1.40489        0.43929       -0.00003
C         -0.77107       -1.89528        0.00000
C         -2.74410        0.06657       -0.00002
C         -2.10772       -2.26540        0.00000
H          0.01403       -2.64032        0.00002
C         -3.07980       -1.28068        0.00000
H         -3.52484        0.81175       -0.00002
H         -2.38316       -3.30982        0.00001
H         -4.12560       -1.55729        0.00001
O         -0.95983        1.70616       -0.00003
C         -1.89465        2.76138        0.00002
H         -2.52401        2.73260        0.89263
H         -1.31098        3.67656        0.00003
H         -2.52404        2.73264       -0.89258
